% Model:              random_surface_grain_b_var_MW.mph
% Version:            COMSOL 5.5.0.306
% Date:               Aug 17 2021, 12:39
% Table:              Table 2 - surface area
% surface area
3.4568713175160557E-10
