% Model:              random_surface_grain_b_var_MW.mph
% Version:            COMSOL 5.5.0.306
% Date:               Aug 17 2021, 12:40
% Table:              Table 2 - surface area
% surface area
3.296244537814302E-10
