% Model:              random_surface_grain_b_var_MW_fixed_phi.mph
% Version:            COMSOL 5.5.0.359
% Date:               Mar 24 2022, 12:24
% Table:              Table 3 - particle volume
% domain volume          domain volume
5.633039576119667E-16    8.449500000000053E-13
