% Model:              random_surface_grain_b_var_MW_fixed_phi.mph
% Version:            COMSOL 5.5.0.359
% Date:               Mar 24 2022, 08:53
% Table:              Table 3 - particle volume
% domain volume          domain volume
5.476201896167976E-16    8.214299999999972E-13
