% Model:              abc_20_4_0,8e-6_MW - Kopie.mph
% Version:            COMSOL 5.5.0.359
% Date:               Mar 28 2022, 10:52
% Table:              Tabelle 1 - sigma_eff ((dflux.u21-dflux.u22)*2*pi/(pi*L^2)/E0/(2*mu*c0))
% w                                               Normalized effective conductivity
0.01                                              0.9988909707287981+5.9735886711491726E-9i
0.01088401916069006                               0.9988909707553579+6.500962806662924E-9i
0.011846187309026836                              0.9988909707868423+7.074754216842168E-9i
0.01289341296525715                               0.9988909708241508+7.699007781377459E-9i
0.014033215376054847                              0.9988909708682436+8.378109230706588E-9i
0.01527377850390714                               0.9988909709205231+9.116809462205891E-9i
0.016624009789266127                              0.9988909709823732+9.920252589120591E-9i
0.018093604107387164                              0.998890971055646+1.0793998527475683E-8i
0.01969311337907423                               0.9988909711423659+1.1744057017652417E-8i
0.021434022335148566                              0.9988909712450554+1.2776904470352952E-8i
0.023328830978641572                              0.9988909713665595+1.3899515205585767E-8i
0.02539114433680347                               0.9988909715103453+1.5119384632642467E-8i
0.027635770147361603                              0.998890971680471+1.6444537138945095E-8i
0.03007882518043099                               0.9988909718816604+1.7883555487336324E-8i
0.03273785095948577                               0.9988909721195434+1.9445562387659647E-8i
0.03563193971228586                               0.9988909724007693+2.1140223101286848E-8i
0.03878187145610724                               0.9988909727331508+2.297772645443365E-8i
0.04221026320156901                               0.9988909731256143+2.496872757181299E-8i
0.04594173134636476                               0.9988909735889643+2.7124267592689584E-8i
0.05000306842491095                               0.9988909741355123+2.9455667926053067E-8i
0.054423435483002665                              0.9988909747797405+3.1974371101040524E-8i
0.05923457145875806                               0.9988909755384522+3.469171301135259E-8i
0.06447102107323872                               0.9988909764311011+3.76186316730125E-8i
0.07017038286703829                               0.9988909774798767+4.076528485880407E-8i
0.07637357916378024                               0.9988909787104218+4.414055728631115E-8i
0.08312514989890632                               0.9988909801517007+4.775143014009145E-8i
0.09047357242349298                               0.998890981836394+5.160223221539414E-8i
0.09847160957933775                               0.9988909838010107+5.5693703137862954E-8i
0.10717668854455034                               0.998890986085818+6.002188361348291E-8i
0.11665131316981968                               0.998890988734592+6.457687676398846E-8i
0.1269635127659974                                0.998890991793882+6.93414631083044E-8i
0.13818733056536328                               0.9988909953124107+7.42895717099052E-8i
0.15040335536380253                               0.9988909993392234+7.938483787150107E-8i
0.16369930016117026                               0.9988910039220031+8.45792241552236E-8i
0.17817063195457308                               0.9988910091043792+8.981201086452372E-8i
0.193921257206583                                 0.9988910149227562+9.500933476340612E-8i
0.21106426791015548                               0.9988910214025711+1.000845168369016E-7i
0.22972275360711536                               0.9988910285543529+1.0493956184153083E-7i
0.25003068519063254                               0.9988910363699208+1.0946777119270041E-7i
0.2721338768375309                                0.9988910448185622+1.1355809796372807E-7i
0.2961910329772555                                0.9988910538453978+1.1710046949843642E-7i
0.32237488781490303                               0.998891063370146+1.1999234670632703E-7i
0.35087344559027134                               0.9988910732884856+1.221456251738491E-7i
0.3818913304781854                                0.9988910834760095+1.2349326698001592E-7i
0.4156512558225992                                0.9988910937937135+1.239947189426179E-7i
0.45239562325380556                               0.9988911040953664+1.236394001202753E-7i
0.49238826317067413                               0.9988911142358923+1.2244771210156738E-7i
0.5359163290848518                                0.9988911240792326+1.2046937597489543E-7i
0.5832923594286206                                0.9988911335056797+1.1777943447347589E-7i
0.634856521630522                                 0.998891142416819+1.1447250279213963E-7i
0.6909790545715645                                0.9988911507389138+1.1065598262001604E-7i
0.752062926959241                                 0.9988911584232919+1.0644319290681472E-7i
0.8185467307069029                                0.9988911654457365+1.0194706490452303E-7i
0.8909078300934142                                0.9988911718033837+9.727504887170624E-8i
0.9696657893145525                                0.9988911775115689+9.252529861919434E-8i
1.0553861030365241                                0.9988911825992772+8.778420305546306E-8i
1.1486842567375548                                0.9988911871059669+8.312538785009639E-8i
1.250230145991456                                 0.9988911910774049+7.860943673053007E-8i
1.3607528864243346                                0.9988911945629676+7.428471839082421E-8i
1.4810460488806754                                0.9988911976130862+7.018837286096465E-8i
1.6119733573881587                                0.9988912002775443+6.634782456331431E-8i
1.7544748908334598                                0.9988912026040478+6.278223321617792E-8i
1.9095738328780987                                0.998891204637481+5.950401664417009E-8i
2.0783838185797574                                0.9988912064195329+5.652020929867214E-8i
2.2621169304690265                                0.9988912079885193+5.383367408163774E-8i
2.462092401494628                                 0.9988912093794912+5.1444188867385436E-8i
2.679746087325692                                 0.9988912106240506+4.934929044170747E-8i
2.9166407760237067                                0.9988912117515067+4.7545015944152595E-8i
3.1744774091091936                                0.9988912127883935+4.6026434051711544E-8i
3.4551072945922217                                0.9988912137592056+4.478808462380834E-8i
3.760545399658172                                 0.9988912146870328+4.3824239329532976E-8i
4.092984818452442                                 0.9988912155938156+4.312909960912658E-8i
4.454812518844989                                 0.9988912165004413+4.2696847295559073E-8i
4.848626481239083                                 0.9988912174277167+4.252163410941454E-8i
5.277254352483543                                 0.9988912183963815+4.2597438979646525E-8i
5.7437737488265865                                0.9988912194274673+4.291784838408235E-8i
6.251534353689718                                 0.9988912205427056+4.3475762386658915E-8i
6.804181968927101                                 0.9988912217644113+4.4262960591423985E-8i
7.405684692262442                                 0.9988912231159603+4.5269637571645656E-8i
8.060361408861345                                 0.998891224621675+4.648381454620817E-8i
8.772912801613366                                 0.9988912263063863+4.7890709647732783E-8i
9.548455102782302                                 0.9988912281954608+4.947207138009928E-8i
10.39255682936713                                 0.9988912303138996+5.120552347559384E-8i
11.311278765939225                                0.9988912326857802+5.306397042438266E-8i
12.311217482038908                                0.9988912353329681+5.501517675536372E-8i
13.399552696593398                                0.9988912382737525+5.702157618976846E-8i
14.584098829439863                                0.9988912415216439+5.9040430497878855E-8i
15.873361110102103                                0.9988912450835437+6.10244523123736E-8i
17.276596646690383                                0.998891248958013+6.292292377243475E-8i
18.803880893409165                                0.9988912531341646+6.468339457462146E-8i
20.46617999391992                                 0.9988912575907346+6.625385256459815E-8i
22.275429519995587                                0.9988912622956339+6.758528681483563E-8i
24.244620170823307                                0.9988912672063895+6.863443432865387E-8i
26.387891048289347                                0.9988912722713861+6.936640946762921E-8i
28.720631177978312                                0.998891277432137+6.975697884579738E-8i
31.25959000482281                                 0.9988912826260367+6.979418550103851E-8i
34.02299765678071                                 0.9988912877889626+6.94790991945671E-8i
37.03069584005145                                 0.9988912928591054+6.88256840949653E-8i
40.30428030568055                                 0.9988912977796642+6.785972802695741E-8i
43.867255910485035                                0.9988913025013495+6.661699904038828E-8i
47.745205385661315                                0.9988913069842622+6.514087223941262E-8i
51.96597302486202                                 0.9988913111990326+6.347969168840329E-8i
56.55986461065008                                 0.9988913151267129+6.168406539193134E-8i
61.55986501483514                                 0.9988913187587185+5.980443595428918E-8i
67.0018750350959                                  0.9988913220953267+5.7889046887666115E-8i
72.92496916841452                                 0.9988913251447333+5.598239525289923E-8i
79.37167617217558                                 0.9988913279212424+5.412423451633971E-8i
86.38828442740453                                 0.9988913304435021+5.234912684333311E-8i
94.02517429670142                                 0.9988913327334306+5.068635778157868E-8i
102.33717986325213                                0.9988913348147265+4.9160222791386254E-8i
111.38398264826206                                0.9988913367119301+4.779054222675597E-8i
121.23054013376529                                0.9988913384499617+4.6593216608184474E-8i
131.94755216767086                                0.9988913400534235+4.5580874594752445E-8i
143.61196859990804                                0.9988913415466468+4.47633928147957E-8i
156.30754179458174                                0.9988913429534512+4.4148401844190316E-8i
170.1254279852589                                 0.9988913442973336+4.374159814765244E-8i
185.1648417912158                                 0.9988913456015698+4.354700293013347E-8i
201.53376859417352                                0.9988913468894598+4.3567044210326774E-8i
219.34973989050602                                0.9988913481841996+4.380261348960293E-8i
238.7406771860647                                 0.9988913495092715+4.425297635497235E-8i
259.84581049292524                                0.9988913508886195+4.491556184801654E-8i
282.81667802300353                                0.99889135234634+4.578575049513896E-8i
307.81821425650804                                0.9988913539069337+4.68565671397599E-8i
335.02993419772366                                0.9988913555950599+4.81182280608491E-8i
364.64722232127525                                0.9988913574351883+4.9557780493273087E-8i
396.8827354637166                                 0.9988913594512091+5.115862063147052E-8i
431.96792973341735                                0.9988913616658808+5.290003480372374E-8i
470.1547224022139                                 0.9988913640995142+5.4757007829180964E-8i
511.717300711461                                  0.9988913667694533+5.670006310570451E-8i
556.9540905800136                                 0.9988913696883578+5.869548138462593E-8i
606.1898993497584                                 0.9988913728628863+6.070593840645953E-8i
659.7782479539546                                 0.9988913762926022+6.269157684189737E-8i
718.1039092537357                                 0.9988913799684893+6.46115831368762E-8i
781.585670768409                                  0.9988913838727331+6.64261976032376E-8i
850.679341636417                                  0.9988913879781833+6.80990780051905E-8i
925.8810253973965                                 0.9988913922493505+6.959959681041533E-8i
1007.7306820944617                                0.9988913966436225+7.090513556130862E-8i
1096.8160052731403                                0.9988914011132509+7.200270792028417E-8i
1193.7766417144383                                0.9988914056079669+7.28900033811226E-8i
1299.3087842004172                                0.9988914100776726+7.357559083780282E-8i
1414.1701702890239                                0.9988914144746869+7.407833752714513E-8i
1539.1855229902085                                0.9988914187559244+7.442626372153516E-8i
1675.2524724082173                                0.9988914228842614+7.465492516876891E-8i
1823.3480008684423                                0.9988914268296657+7.480565529136588E-8i
1984.5354578058032                                0.9988914305696589+7.492391134335534E-8i
2159.9721947827215                                0.9988914340888685+7.50576703843898E-8i
2350.917875457289                                 0.9988914373793739+7.525609657627984E-8i
2558.743520168589                                 0.9988914404395564+7.55684156857878E-8i
2784.94135008065                                  0.9988914432741388+7.60429779689145E-8i
3031.135501567582                                 0.9988914458929131+7.672648261741375E-8i
3299.0936877709423                                0.9988914483103324+7.766338654987396E-8i
3590.739891061055                                 0.9988914505444988+7.889549303189955E-8i
3908.168177536272                                 0.9988914526161188+8.046169627064334E-8i
4253.657732750392                                 0.998891454547859+8.23978900238969E-8i
4629.689226627268                                 0.9988914563632207+8.473708745654759E-8i
5038.962625065161                                 0.9988914580855163+8.75097106164894E-8i
5484.416576121026                                 0.99889145973742+9.074404555903877E-8i
5969.249509970739                                 0.9988914613397128+9.446687012744959E-8i
6496.942604146125                                 0.9988914629110198+9.870423849345764E-8i
7071.284778943011                                 0.9988914644669247+1.0348239577901848E-7i
7696.399902471167                                 0.9988914660200127+1.0882878247759329E-7i
8376.776400682924                                 0.9988914675791388+1.1477309311254941E-7i
9117.29948498494                                  0.9988914691501617+1.2134837090601527E-7i
9923.286228832565                                 0.9988914707353482+1.2859206285883858E-7i
10800.52374516254                                 0.9988914723342636+1.3654701787992966E-7i
11755.310738783699                                0.998891473943621+1.4526242006221855E-7i
12794.50273207876                                 0.9988914755582384+1.5479461901645385E-7i
13925.561288744648                                0.9988914771712013+1.6520789346064345E-7i
15156.607589006044                                0.998891478774582+1.7657511961740333E-7i
16496.48074098024                                 0.9988914803597414+1.8897842103563545E-7i
17954.80124687834                                 0.998891481917809+2.0250976999636577E-7i
19542.040079740553                                0.9988914834403251+2.1727157730762928E-7i
21269.59386668692                                 0.9988914849192587+2.333773508740919E-7i
23149.866718511657                                0.9988914863476177+2.5095226621376287E-7i
25196.359293170186                                0.998891487719683+2.7013391181420634E-7i
27423.765732649525                                0.9988914890312834+2.9107296987917927E-7i
29848.079169243334                                0.9988914902801167+3.139340137476591E-7i
32486.706558783815                                0.9988914914659492+3.3889634351402985E-7i
35358.59366535183                                 0.9988914925906625+3.661549127080386E-7i
38484.36109487433                                 0.9988914936587459+3.959213833389315E-7i
41886.4523543528                                  0.9988914946769869+4.2842521680905754E-7i
45589.294999810685                                0.9988914956548408+4.6391504192569086E-7i
49619.47603002908                                 0.9988914966044332+5.026600697020972E-7i
54005.93278542374                                 0.9988914975404898+5.449517797863451E-7i
58780.16072274924                                 0.9988914984804836+5.911058095030792E-7i
63976.439557484366                                0.998891499444795+6.414639986384855E-7i
69632.0793976389                                  0.9988915004567981+6.963968264075505E-7i
75787.68863625945                                 0.9988915015431087+7.563059560295833E-7i
82487.46552614598                                 0.9988915027339014+8.216271301726309E-7i
89779.51553033332                                 0.9988915040635739+8.928333069553087E-7i
97716.19672696182                                 0.9988915055710399+9.704380517536418E-7i
106354.49574860134                                0.9988915073008489+1.0549993341046007E-6i
115756.43695533059                                0.9988915093040605+1.1471234580749327E-6i
125989.52777950285                                0.9988915116392425+1.2474694664447077E-6i
137127.24343984036                                0.9988915143742009+1.3567538077449196E-6i
149249.55450518322                                0.9988915175875701+1.475755393196203E-6i
162443.50109588687                                0.9988915213705997+1.6053210928571427E-6i
176803.81784572086                                0.9988915258300859+1.7463716546696634E-6i
192433.6141115984                                 0.9988915310905703+1.8999081116854234E-6i
209445.1143151473                                 0.9988915372981519+2.0670185257341633E-6i
227960.4637318982                                 0.9988915446242672+2.2488855905027532E-6i
248112.60551377755                                0.998891553270451+2.4467944993403722E-6i
270046.23524206877                                0.9988915634739869+2.662141363067707E-6i
293918.83986468904                                0.9988915755143508+2.8964423929400596E-6i
319901.8284775067                                 0.9988915897210027+3.151343493192917E-6i
348181.76306889736                                0.9988916064824993+3.428630491468586E-6i
378961.69806447235                                0.9988916262576046+3.730239805760526E-6i
412462.63829013566                                0.9988916495873867+4.058269701868005E-6i
448925.12582186074                                0.9988916771102836+4.414991972658292E-6i
488610.9671160336                                 0.9988917095797085+4.802863817199148E-6i
531805.1128214208                                 0.9988917478842066+5.2245400367009635E-6i
578817.703770128                                  0.9988917930716066+5.682884965831491E-6i
629986.2978380707                                 0.9988918463770109+6.180984191215606E-6i
685678.2936641752                                 0.9988919092554089+6.722155325650045E-6i
746293.5686310144                                 0.9988919834200479+7.309957413115943E-6i
812267.350047972                                  0.9988920708866972+7.94819831058265E-6i
884073.3401525081                                 0.998892174025416+8.640938679971751E-6i
962227.1173675155                                 0.9988922956200044+9.392491826940954E-6i
1047289.8382363617                                0.9988924389366968+1.0207417437934999E-5i
1139872.2666160525                                0.9988926078025865+1.1090506959506901E-5i
1240639.1590588344                                0.9988928066951818+1.204675847105487E-5i
1350314.0378698776                                0.9988930408424804+1.30813374059915E-5i
1469684.3861124474                                0.9988933163357883+1.419951927869258E-5i
1599607.301861491                                 0.9988936402527078+1.5406609397601027E-5i
1741015.6523040226                                0.9988940207909562+1.670783392205768E-5i
1894924.7718738236                                0.9988944674089799+1.8108195090201264E-5i
2062439.752514097                                 0.9988949909701573+1.9612283195529304E-5i
2244763.3784132237                                0.9988956038829374+2.122403626306241E-5i
2443204.762186492                                 0.9988963202266702+2.294643878299551E-5i
2659188.744512702                                 0.9988971558499846+2.4781150320977757E-5i
2894266.1247167517                                0.9988981284203693+2.67280572068332E-5i
3150124.795755334                                 0.9988992574008461+2.878474289585161E-5i
3428601.8635565974                                0.9989005639214651+3.094587900909217E-5i
3731696.8377327556                                0.9989020705073284+3.3202547597202586E-5i
4061585.988376988                                 0.9989038006205988+3.554151861691671E-5i
4420637.972028548                                 0.9989057779725514+3.7944524338612786E-5i
4811430.839003264                                 0.9989080255656342+4.038759348510192E-5i
5236770.544204666                                 0.9989105644409222+4.28405338594588E-5i
5699711.094326075                                 0.9989134121308958+4.5266674207734336E-5i
6203576.476104281                                 0.9989165808578143+4.762299590867256E-5i
6751984.523072522                                 0.9989200755735822+4.9860786681679414E-5i
7348872.892180388                                 0.9989238919992143+5.192693042199869E-5i
7998527.336796724                                 0.9989280148864159+5.376589589841239E-5i
8705612.479099892                                 0.9989324167691048+5.532240260026204E-5i
9475205.302806547                                 0.9989370574844065+5.654462815315922E-5i
1.0312831606721869E7                              0.9989418846990115+5.738769611060161E-5i
1.1224505680853104E7                              0.9989468355715461+5.781707456858725E-5i
1.2216773489967931E7                              0.9989518395245164+5.781145695995829E-5i
1.3296759674662154E7                              0.9989568219144958+5.7364714184750566E-5i
1.4472218707411403E7                              0.9989617082230955+5.64866142642432E-5i
1.5751590570916245E7                              0.9989664282843289+5.520218185846666E-5i
1.7144061358519755E7                              0.9989709200529574+5.354978304435005E-5i
1.865962923181746E7                               0.9989751325003702+5.1578209483627656E-5i
2.030917620904739E7                               0.9989790273846546+4.934317144835339E-5i
2.2104546299710285E7                              0.9989825798314944+4.690364444231042E-5i
2.405863054644067E7                               0.9989857778355096+4.431847458196236E-5i
2.6185459584742382E7                              0.9989886209186677+4.1643539345786336E-5i
2.850030438518117E7                               0.9989911182411438+3.892962966255284E-5i
3.1019785901381E7                                 0.9989932864585894+3.6221091045961905E-5i
3.376199441111347E7                               0.9989951475743929+3.355516269119971E-5i
3.674661940736703E7                               0.9989967269695889+3.096189424737308E-5i
3.99950909720367E7                                0.998998051717913+2.8464490701048876E-5i
4.353073364731901E7                               0.9989991492349883+2.607994105164268E-5i
4.737893390963144E7                               0.9990000462599755+2.3819802752792665E-5i
5.156732244854974E7                               0.9990007681433964+2.1691043957363702E-5i
5.612597255954989E7                               0.9990013383905461+1.9696871356042468E-5i
6.10876160750504E7                                0.9990017784097375+1.7837495992033393E-5i
6.648787838417277E7                               0.9990021074207704+1.611081628456878E-5i
7.23655342286968E7                                0.9990023424733719+1.4513003198412358E-5i
7.876278611187063E7                               0.9990024985398835+1.3038988503484831E-5i
8.572556731909342E7                               0.999002588660788+1.1682864915871572E-5i
9.330387172620398E7                               0.9990026241100922+1.0438204622564726E-5i
1.0155211276345691E8                              0.9990026145752431+9.29830767438705E-6i
1.1052951411260243E8                              0.9990025683335814+8.256393413097081E-6i
1.2030053494233291E8                              0.9990024924239455+7.3057430296944E-6i
1.3093533273536122E8                              0.9990023928025663+6.439803177246749E-6i
1.425102670303002E8                               0.9990022744884406+5.6522593184554506E-6i
1.5510844769528404E8                              0.9990021416912054+4.937085001422827E-6i
1.688203316700366E8                               0.9990019979241619+4.288572120149285E-6i
1.8374437246107325E8                              0.9990018461026563+3.701348599829169E-6i
1.999877270535287E8                               0.999001688632344+3.170386167639818E-6i
2.1766702531534636E8                              0.9990015274817253+2.6910016992879015E-6i
2.3690920741826418E8                              0.9990013642456738+2.2588544786259954E-6i
2.5785243528842765E8                              0.999001200204316+1.8699408587566523E-6i
2.806470846309845E8                               0.9990010363774151+1.5205868425880041E-6i
3.0545682465154445E8                              0.9990008735677831+1.2074376696883835E-6i
3.3245979322709453E8                              0.9990007124086009+9.274448006062128E-7i
3.618498759642758E8                               0.9990005534044075+6.778490592420917E-7i
3.938380983288489E8                               0.9990003969687828+4.5615968841635445E-7i
4.286541408420934E8                               0.999000243453931+2.601291022359857E-7i
4.6654798822344875E8                              0.9990000931795594+8.772476105961069E-8i
5.0779172432054037E8                              0.9989999464490219-6.290114853374482E-8i
5.526814857144614E8                               0.9989998035653117-1.9344180886964196E-7i
6.015395880274857E8                               0.9989996648294074-3.0546451507469047E-7i
6.547168402004743E8                               0.9989995305430364-4.00435683999837E-7i
7.125950633568425E8                               0.9989994010007568-4.797413487446795E-7i
7.755898323389033E8                               0.9989992764849495-5.447022252134015E-7i
8.441534596012994E8                               0.9989991572488726-5.96583780432871E-7i
9.187782428863358E8                               0.998999043513685-6.366010931361716E-7i
1.000000000000004E9                               0.9989989354592206-6.65920352360025E-7i
