% Model:              abc_5_1_0.2e-6_MW - Kopie.mph
% Version:            COMSOL 5.5.0.359
% Date:               Mar 29 2022, 10:55
% Table:              Tabelle 1 - sigma_eff ((dflux.u21-dflux.u22)*2*pi/(pi*L^2)/E0/(2*mu*c0))
% w                                               Normalized effective conductivity
0.01                                              0.9988963339649453+1.3190458722292672E-9i
0.01088401916069006                               0.9988963339653221+1.4356514560279056E-9i
0.011846187309026836                              0.9988963339657791+1.5625650520865891E-9i
0.01289341296525715                               0.9988963339662773+1.7006977645220728E-9i
0.014033215376054847                              0.9988963339669092+1.8510414085855554E-9i
0.01527377850390714                               0.9988963339675974+2.014675315900177E-9i
0.016624009789266127                              0.9988963339684408+2.1927742808507095E-9i
0.018093604107387164                              0.9988963339694619+2.386616926670673E-9i
0.01969311337907423                               0.9988963339706803+2.5975948885779318E-9i
0.021434022335148566                              0.9988963339720979+2.8272226179127828E-9i
0.023328830978641572                              0.9988963339737958+3.07714848776081E-9i
0.02539114433680347                               0.9988963339757878+3.349166670671915E-9i
0.027635770147361603                              0.9988963339781958+3.6452294782555307E-9i
0.03007882518043099                               0.9988963339809402+3.967461939054458E-9i
0.03273785095948577                               0.9988963339842403+4.318176698679043E-9i
0.03563193971228586                               0.9988963339881836+4.6998903475917E-9i
0.03878187145610724                               0.9988963339928744+5.115342128951991E-9i
0.04221026320156901                               0.9988963339983125+5.567512954820892E-9i
0.04594173134636476                               0.9988963340048704+6.059646046567392E-9i
0.05000306842491095                               0.9988963340125936+6.59527146401659E-9i
0.054423435483002665                              0.99889633402175+7.178230018097991E-9i
0.05923457145875806                               0.9988963340326221+7.812701561442196E-9i
0.06447102107323872                               0.9988963340454831+8.503233098878391E-9i
0.07017038286703829                               0.998896334060702+9.254772363399957E-9i
0.07637357916378024                               0.9988963340787599+1.0072702139422681E-8i
0.08312514989890632                               0.998896334100142+1.0962877727504223E-8i
0.09047357242349298                               0.9988963341254624+1.1931668435029478E-8i
0.09847160957933775                               0.9988963341554361+1.2986001386326094E-8i
0.10717668854455034                               0.9988963341909824+1.4133408743930435E-8i
0.11665131316981968                               0.9988963342330599+1.5382082216804407E-8i
0.1269635127659974                                0.9988963342829283+1.674092407578911E-8i
0.13818733056536328                               0.9988963343419678+1.8219611723504017E-8i
0.15040335536380253                               0.9988963344119576+1.982865960339083E-8i
0.16369930016117026                               0.9988963344947799+2.157948614269535E-8i
0.17817063195457308                               0.9988963345928817+2.3484493468212644E-8i
0.193921257206583                                 0.9988963347090223+2.555713741299599E-8i
0.21106426791015548                               0.998896334846636+2.7812016085246256E-8i
0.22972275360711536                               0.9988963350095279+3.0264953321201215E-8i
0.25003068519063254                               0.9988963352025563+3.293308941017366E-8i
0.2721338768375309                                0.9988963354310113+3.583497434954144E-8i
0.2961910329772555                                0.9988963357014284+3.899065888780358E-8i
0.32237488781490303                               0.9988963360216769+4.242179376940383E-8i
0.35087344559027134                               0.99889633640062+4.615171732007936E-8i
0.3818913304781854                                0.99889633684916+5.020554453729702E-8i
0.4156512558225992                                0.998896337379803+5.46102304486324E-8i
0.45239562325380556                               0.99889633800765+5.93946427999272E-8i
0.49238826317067413                               0.9988963387502123+6.458958408651332E-8i
0.5359163290848518                                0.9988963396281741+7.022780254305646E-8i
0.5832923594286206                                0.9988963406658358+7.634393226991068E-8i
0.634856521630522                                 0.9988963418918813+8.297439883829484E-8i
0.6909790545715645                                0.9988963433396696+9.015721331452552E-8i
0.752062926959241                                 0.9988963450483632+9.793167096193444E-8i
0.8185467307069029                                0.9988963470635297+1.063379229727839E-7i
0.8909078300934142                                0.9988963494383853+1.1541633736061444E-7i
0.9696657893145525                                0.9988963522344797+1.25206668026699E-7i
1.0553861030365241                                0.9988963555227672+1.3574694411276434E-7i
1.1486842567375548                                0.9988963593848429+1.4707198611410022E-7i
1.250230145991456                                 0.9988963639139583+1.5921158691310595E-7i
1.3607528864243346                                0.9988963692157257+1.7218817357286167E-7i
1.4810460488806754                                0.9988963754088545+1.8601395562753228E-7i
1.6119733573881587                                0.9988963826256241+2.0068753598722665E-7i
1.7544748908334598                                0.9988963910110207+2.161898424344987E-7i
1.9095738328780987                                0.9988964007219018+2.3247962432242334E-7i
2.0783838185797574                                0.9988964119248424+2.4948837368412476E-7i
2.2621169304690265                                0.9988964247916048+2.6711510809835E-7i
2.462092401494628                                 0.9988964394943904+2.8522126870563467E-7i
2.679746087325692                                 0.9988964561976604+3.03626223496357E-7i
2.9166407760237067                                0.9988964750487511+3.221041332874138E-7i
3.1744774091091936                                0.9988964961660055+3.4038308349020777E-7i
3.4551072945922217                                0.9988965196254975+3.5814733380679293E-7i
3.760545399658172                                 0.9988965454469754+3.750436173246188E-7i
4.092984818452442                                 0.9988965735806312+3.9069221744321487E-7i
4.454812518844989                                 0.9988966038958172+4.0470290649208874E-7i
4.848626481239083                                 0.9988966361747753+4.166953862555869E-7i
5.277254352483543                                 0.9988966701116225+4.2632264922885755E-7i
5.7437737488265865                                0.99889670531971+4.332953401360274E-7i
6.251534353689718                                 0.9988967413466239+4.3740391816434473E-7i
6.804181968927101                                 0.9988967776957584+4.385359923628113E-7i
7.405684692262442                                 0.9988968138538665+4.366861350328657E-7i
8.060361408861345                                 0.9988968493199809+4.319566978990389E-7i
8.772912801613366                                 0.9988968836325934+4.2454947086011866E-7i
9.548455102782302                                 0.998896916393507+4.1474964026265025E-7i
10.39255682936713                                 0.9988969472836451+4.029040636091652E-7i
11.311278765939225                                0.998896976071325+3.893973005676238E-7i
12.311217482038908                                0.9988970026132804+3.74627730676647E-7i
13.399552696593398                                0.9988970268488668+3.589866255876476E-7i
14.584098829439863                                0.9988970487894396+3.428413157680568E-7i
15.873361110102103                                0.9988970685056479+3.265233410105681E-7i
17.276596646690383                                0.9988970861129791+3.1032135386921497E-7i
18.803880893409165                                0.9988971017584691+2.9447832317673023E-7i
20.46617999391992                                 0.9988971156088564+2.7919194241257954E-7i
22.275429519995587                                0.9988971278402089+2.646175713445008E-7i
24.244620170823307                                0.9988971386303139+2.5087249932561395E-7i
26.387891048289347                                0.9988971481526342+2.3804110479262933E-7i
28.720631177978312                                0.9988971565723384+2.2618012706142364E-7i
31.25959000482281                                 0.9988971640440611+2.15323841981212E-7i
34.02299765678071                                 0.9988971707103916+2.0548870434642182E-7i
37.03069584005145                                 0.9988971767016822+1.9667752932271928E-7i
40.30428030568055                                 0.9988971821361436+1.888830468016317E-7i
43.867255910485035                                0.9988971871211199+1.820908586842185E-7i
47.745205385661315                                0.998897191753696+1.7628177644287533E-7i
51.96597302486202                                 0.9988971961225604+1.7143375668115302E-7i
56.55986461065008                                 0.9988972003088054+1.6752323196055373E-7i
61.55986501483514                                 0.9988972043880513+1.645261016582609E-7i
67.0018750350959                                  0.9988972084313823+1.624183310729602E-7i
72.92496916841452                                 0.9988972125070664+1.6117616657227725E-7i
79.37167617217558                                 0.9988972166817243+1.6077603821337844E-7i
86.38828442740453                                 0.9988972210217215+1.6119414584801117E-7i
94.02517429670142                                 0.998897225594144+1.624057141395535E-7i
102.33717986325213                                0.9988972304678483+1.6438392841656816E-7i
111.38398264826206                                0.9988972357140252+1.6709859039959073E-7i
121.23054013376529                                0.9988972414065459+1.7051443319470031E-7i
131.94755216767086                                0.9988972476218814+1.7458923673001673E-7i
143.61196859990804                                0.9988972544385226+1.792716978028079E-7i
156.30754179458174                                0.9988972619357072+1.844992533685708E-7i
170.1254279852589                                 0.9988972701912168+1.9019595132904027E-7i
185.1648417912158                                 0.9988972792788071+1.9627062749662573E-7i
201.53376859417352                                0.9988972892642075+2.026156350470255E-7i
219.34973989050602                                0.9988973002011982+2.0910648629567978E-7i
238.7406771860647                                 0.9988973121258106+2.1560268224441875E-7i
259.84581049292524                                0.9988973250518429+2.2195010981512198E-7i
282.81667802300353                                0.9988973389652986+2.279851408994607E-7i
307.81821425650804                                0.9988973538206568+2.3354052256389723E-7i
335.02993419772366                                0.9988973695382417+2.384528078488343E-7i
364.64722232127525                                0.9988973860034598+2.425708861956478E-7i
396.8827354637166                                 0.9988974030694632+2.4576488022389057E-7i
431.96792973341735                                0.9988974205613718+2.4793452864946043E-7i
470.1547224022139                                 0.9988974382840515+2.4901607397611715E-7i
511.717300711461                                  0.9988974560312012+2.4898693392664293E-7i
556.9540905800136                                 0.9988974735956376+2.4786746772212654E-7i
606.1898993497584                                 0.9988974907796123+2.4571977320887084E-7i
659.7782479539546                                 0.9988975074045344+2.426435857676848E-7i
718.1039092537357                                 0.9988975233183431+2.387698399616836E-7i
781.585670768409                                  0.9988975384011354+2.3425264726011298E-7i
850.679341636417                                  0.9988975525678249+2.292605910736106E-7i
925.8810253973965                                 0.9988975657682936+2.2396810934678663E-7i
1007.7306820944617                                0.9988975779856395+2.1854779766999926E-7i
1096.8160052731403                                0.9988975892322942+2.1316410875139595E-7i
1193.7766417144383                                0.9988975995456115+2.0796866945270533E-7i
1299.3087842004172                                0.9988976089825107+2.0309737997076083E-7i
1414.1701702890239                                0.9988976176144635+1.9866900541224134E-7i
1539.1855229902085                                0.9988976255233512+1.9478514792978162E-7i
1675.2524724082173                                0.9988976327969019+1.915310810175871E-7i
1823.3480008684423                                0.9988976395263884+1.889772511224666E-7i
1984.5354578058032                                0.9988976458039779+1.8718102878087285E-7i
2159.9721947827215                                0.9988976517216165+1.8618854921084549E-7i
2350.917875457289                                 0.9988976573699406+1.8603634644053106E-7i
2558.743520168589                                 0.9988976628377989+1.8675279519385127E-7i
2784.94135008065                                  0.998897668212601+1.8835931607205107E-7i
3031.135501567582                                 0.9988976735796355+1.9087121814668343E-7i
3299.0936877709423                                0.9988976790229128+1.9429831788324455E-7i
3590.739891061055                                 0.9988976846249149+1.9864539163803398E-7i
3908.168177536272                                 0.9988976904670661+2.0391232976025443E-7i
4253.657732750392                                 0.998897696629646+2.1009411602358261E-7i
4629.689226627268                                 0.9988977031922158+2.171806108699982E-7i
5038.962625065161                                 0.9988977102333321+2.2515604993281706E-7i
5484.416576121026                                 0.9988977178304032+2.3399831505517605E-7i
5969.249509970739                                 0.9988977260591836+2.4367804594940315E-7i
6496.942604146125                                 0.9988977349927842+2.5415749786524396E-7i
7071.284778943011                                 0.9988977446996316+2.6538952666287337E-7i
7696.399902471167                                 0.9988977552417018+2.773167007637503E-7i
8376.776400682924                                 0.9988977666710259+2.898709341640734E-7i
9117.29948498494                                  0.9988977790259225+3.029739916803517E-7i
9923.286228832565                                 0.9988977923271533+3.1653913276713606E-7i
10800.52374516254                                 0.9988978065733817+3.3047417558226117E-7i
11755.310738783699                                0.9988978217374751+3.4468621868266556E-7i
12794.50273207876                                 0.9988978377639721+3.59087727895049E-7i
13925.561288744648                                0.9988978545677805+3.736038298264743E-7i
15156.607589006044                                0.9988978720354196+3.881802773035741E-7i
16496.48074098024                                 0.998897890028326+4.0279115679396144E-7i
17954.80124687834                                 0.9988979083880363+4.174456629792385E-7i
19542.040079740553                                0.9988979269438784+4.3219324379224984E-7i
21269.59386668692                                 0.9988979455207062+4.471265974049515E-7i
23149.866718511657                                0.9988979639479135+4.623823794447506E-7i
25196.359293170186                                0.9988979820674325+4.781396752639422E-7i
27423.765732649525                                0.9988979997408478+4.94616646420664E-7i
29848.079169243334                                0.9988980168547903+5.120658069368347E-7i
32486.706558783815                                0.9988980333253857+5.307684589500972E-7i
35358.59366535183                                 0.9988980491001616+5.510288092871268E-7i
38484.36109487433                                 0.9988980641586608+5.731681108506467E-7i
41886.4523543528                                  0.998898078511628+5.975193768183017E-7i
45589.294999810685                                0.9988980921990827+6.244227095681265E-7i
49619.47603002908                                 0.998898105286729+6.542217033259302E-7i
54005.93278542374                                 0.9988981178625626+6.872608744994479E-7i
58780.16072274924                                 0.9988981300321068+7.23884316703494E-7i
63976.439557484366                                0.9988981419136709+7.644355690339662E-7i
69632.0793976389                                  0.9988981536338634+8.09258671249072E-7i
75787.68863625945                                 0.9988981653228736+8.587004039317752E-7i
82487.46552614598                                 0.9988981771103653+9.131135983795328E-7i
89779.51553033332                                 0.9988981891214214+9.728615128551426E-7i
97716.19672696182                                 0.9988982014737227+1.0383231280378417E-6i
106354.49574860134                                0.9988982142747383+1.1098993232829903E-6i
115756.43695533059                                0.9988982276208601+1.1880197442649762E-6i
125989.52777950285                                0.9988982415961957+1.273150245390685E-6i
137127.24343984036                                0.9988982562734989+1.3658007281567335E-6i
149249.55450518322                                0.9988982717155199+1.4665331586328074E-6i
162443.50109588687                                0.9988982879778823+1.5759696819819526E-6i
176803.81784572086                                0.9988983051120421+1.6948006381611097E-6i
192433.6141115984                                 0.998898323170137+1.8237924025124532E-6i
209445.1143151473                                 0.998898342209569+1.963795150156659E-6i
227960.4637318982                                 0.9988983622988253+2.115750299640779E-6i
248112.60551377755                                0.9988983835237992+2.2806979432257668E-6i
270046.23524206877                                0.9988984059941083+2.4597842904203877E-6i
293918.83986468904                                0.9988984298507936+2.6542691648141737E-6i
319901.8284775067                                 0.9988984552739373+2.8655338207077555E-6i
348181.76306889736                                0.9988984824911622+3.095089128705405E-6i
378961.69806447235                                0.9988985117877563+3.3445842928407165E-6i
412462.63829013566                                0.9988985435175662+3.615816071399178E-6i
448925.12582186074                                0.9988985781157642+3.910738467148869E-6i
488610.9671160336                                 0.9988986161140132+4.231472802773089E-6i
531805.1128214208                                 0.9988986581574634+4.580317964467306E-6i
578817.703770128                                  0.9988987050253407+4.959760617903683E-6i
629986.2978380707                                 0.9988987576542158+5.3724851481946504E-6i
685678.2936641752                                 0.9988988171654092+5.821382900762988E-6i
746293.5686310144                                 0.9988988848965+6.309560469215887E-6i
812267.350047972                                  0.9988989624377254+6.840346379104263E-6i
884073.3401525081                                 0.9988990516742913+7.41729551382728E-6i
962227.1173675155                                 0.9988991548347442+8.04419054919445E-6i
1047289.8382363617                                0.9988992745470942+8.725038765620409E-6i
1139872.2666160525                                0.9988994139030755+9.464063153121089E-6i
1240639.1590588344                                0.9988995765308546+1.0265685505026884E-5i
1350314.0378698776                                0.9988997666788607+1.1134499007712318E-5i
1469684.3861124474                                0.998899989308692+1.207522703264023E-5i
1599607.301861491                                 0.998900250199186+1.3092664359470541E-5i
1741015.6523040226                                0.9989005560601895+1.4191595865788123E-5i
1894924.7718738236                                0.9989009146548281+1.53766869594564E-5i
2062439.752514097                                 0.9989013349266423+1.6652339280600487E-5i
2244763.3784132237                                0.9989018271280742+1.802250402711557E-5i
2443204.762186492                                 0.9989024029411596+1.9490444968431697E-5i
2659188.744512702                                 0.9989030755813181+2.105844286601933E-5i
2894266.1247167517                                0.9989038598673022+2.2727434106680708E-5i
3150124.795755334                                 0.9989047722392255+2.4496577895556103E-5i
3428601.8635565974                                0.9989058306973224+2.6362751134949012E-5i
3731696.8377327556                                0.9989070546305675+2.831997576555035E-5i
4061585.988376988                                 0.998908464499365+3.0358794163696522E-5i
4420637.972028548                                 0.9989100813316552+3.246562164144499E-5i
4811430.839003264                                 0.9989119259964405+3.462212320799856E-5i
5236770.544204666                                 0.9989140182237809+3.680468206719631E-5i
5699711.094326075                                 0.9989163753609342+3.898405045201781E-5i
6203576.476104281                                 0.9989190108828256+4.112529164048716E-5i
6751984.523072522                                 0.99892193271925+4.3188130346479447E-5i
7348872.892180388                                 0.9989251415142809+4.512782302579826E-5i
7998527.336796724                                 0.9989286289905247+4.689662557791519E-5i
8705612.479099892                                 0.9989323766411927+4.844587279838683E-5i
9475205.302806547                                 0.9989363549951195+4.972859365146844E-5i
1.0312831606721869E7                              0.9989405236830399+5.070247756607024E-5i
1.1224505680853104E7                              0.9989448324622572+5.1332901497129214E-5i
1.2216773489967931E7                              0.9989492232333345+5.159565698003218E-5i
1.3296759674662154E7                              0.9989536329266834+5.1479004710554544E-5i
1.4472218707411403E7                              0.9989579969805642+5.098474850147287E-5i
1.5751590570916245E7                              0.9989622530168659+5.012815735508598E-5i
1.7144061358519755E7                              0.9989663442795031+4.893673958827585E-5i
1.865962923181746E7                               0.9989702224439513+4.744805332175164E-5i
2.030917620904739E7                               0.9989738495255811+4.570686995409825E-5i
2.2104546299710285E7                              0.9989771987736766+4.376207148052511E-5i
2.405863054644067E7                               0.9989802545957793+4.1663647627817006E-5i
2.6185459584742382E7                              0.9989830116816744+3.9460082990613085E-5i
2.850030438518117E7                               0.998985473568267+3.7196315384481275E-5i
3.1019785901381E7                                 0.9989876508975207+3.491233423985883E-5i
3.376199441111347E7                               0.9989895595983187+3.26423945727698E-5i
3.674661940736703E7                               0.9989912191637499+3.0414758369479418E-5i
3.99950909720367E7                                0.998992651139919+2.8251844359572862E-5i
4.353073364731901E7                               0.9989938778821853+2.6170661094273635E-5i
4.737893390963144E7                               0.9989949215929984+2.4183409901779246E-5i
5.156732244854974E7                               0.9989958036237674+2.2298166066863737E-5i
5.612597255954989E7                               0.9989965440074604+2.051957014055324E-5i
6.10876160750504E7                                0.9989971611779966+1.8849482975885338E-5i
6.648787838417277E7                               0.9989976718361578+1.7287577925371475E-5i
7.23655342286968E7                                0.9989980909230319+1.5831856654557297E-5i
7.876278611187063E7                               0.9989984316675533+1.4479085664082664E-5i
8.572556731909342E7                               0.99899870568328+1.3225156554950052E-5i
9.330387172620398E7                               0.9989989230939295+1.2065377142536968E-5i
1.0155211276345691E8                              0.9989990926727685+1.0994701998079675E-5i
1.1052951411260243E8                              0.9989992219849048+1.000791125680457E-5i
1.2030053494233291E8                              0.9989993175266171+9.099746793142471E-6i
1.3093533273536122E8                              0.9989993848569648+8.265013363195571E-6i
1.425102670303002E8                               0.9989994287181919+7.498651745491561E-6i
1.5510844769528404E8                              0.9989994531456478+6.795789849793379E-6i
1.688203316700366E8                               0.9989994615645765+6.151776437292618E-6i
1.8374437246107325E8                              0.9989994568764651+5.562201883297376E-6i
1.999877270535287E8                               0.9989994415343263+5.022908725451903E-6i
2.1766702531534636E8                              0.9989994176076772+4.529994902934388E-6i
2.3690920741826418E8                              0.9989993868395304+4.079811564214398E-6i
2.5785243528842765E8                              0.9989993506947807+3.6689569338732587E-6i
2.806470846309845E8                               0.9989993104020135+3.2942675474220715E-6i
3.0545682465154445E8                              0.9989992669890874+2.952807697842167E-6i
3.3245979322709453E8                              0.9989992213140441+2.6418578632258035E-6i
3.618498759642758E8                               0.998999174090374+2.35890249950343E-6i
3.938380983288489E8                               0.9989991259101139+2.101617717381194E-6i
4.286541408420934E8                               0.998999077261739+1.8678590287795996E-6i
4.6654798822344875E8                              0.998999028546923+1.6556493771730598E-6i
5.0779172432054037E8                              0.9989989800935021+1.4631675792706347E-6i
5.526814857144614E8                               0.9989989321675666+1.2887372873091574E-6i
6.015395880274857E8                               0.9989988849829006+1.1308164598597403E-6i
6.547168402004743E8                               0.9989988387094859+9.879874610155052E-7i
7.125950633568425E8                               0.9989987934807546+8.589476845328188E-7i
7.755898323389033E8                               0.998998749399008+7.425008066915182E-7i
8.441534596012994E8                               0.9989987065412318+6.375485820520314E-7i
9.187782428863358E8                               0.9989986649625919+5.430831978301296E-7i
1.000000000000004E9                               0.9989986247009958+4.581801564471106E-7i
