% Model:              abc_20_4_0,8e-6_MW - Kopie.mph
% Version:            COMSOL 5.5.0.359
% Date:               Mar 28 2022, 10:54
% Table:              Table 3 - particle volume
% volume                 volume
5.090961344830144E-14    7.636499999999877E-11
