% Model:              random_surface_grain_N_var_MW_fixed_phi.mph
% Version:            COMSOL 5.5.0.359
% Date:               Mar 24 2022, 11:58
% Table:              N = 20, b = 1, w/ MW - sigma_eff ((dflux.u21-dflux.u22)*2*pi/(pi*L^2)/E0/(2*mu*c0))
% w                                               N 100 b 1.1
0.01                                              0.9989334435378587+8.641186990127926E-10i
0.01088401916069006                               0.998933443537977+9.405084051835366E-10i
0.011846187309026836                              0.9989334435380695+1.0236510793045832E-9i
0.01289341296525715                               0.9989334435381535+1.1141436909179326E-9i
0.014033215376054847                              0.9989334435383367+1.2126360279343732E-9i
0.01527377850390714                               0.9989334435384907+1.3198352419897176E-9i
0.016624009789266127                              0.998933443538701+1.43651100627371E-9i
0.018093604107387164                              0.9989334435389328+1.5635010871371146E-9i
0.01969311337907423                               0.9989334435392454+1.7017172389124388E-9i
0.021434022335148566                              0.9989334435395832+1.8521519050084662E-9i
0.023328830978641572                              0.9989334435399748+2.0158851135327735E-9i
0.02539114433680347                               0.9989334435404884+2.1940925589838504E-9i
0.027635770147361603                              0.9989334435410102+2.388053671224516E-9i
0.03007882518043099                               0.9989334435417048+2.5991610173638663E-9i
0.03273785095948577                               0.9989334435425289+2.828930358380572E-9i
0.03563193971228586                               0.9989334435434738+3.0790112896645885E-9i
0.03878187145610724                               0.9989334435445701+3.351199377738951E-9i
0.04221026320156901                               0.9989334435459343+3.6474486204916314E-9i
0.04594173134636476                               0.9989334435475+3.9698860150652455E-9i
0.05000306842491095                               0.9989334435493562+4.320826298323219E-9i
0.054423435483002665                              0.9989334435515139+4.702788810128352E-9i
0.05923457145875806                               0.998933443554196+5.118515656016715E-9i
0.06447102107323872                               0.9989334435572896+5.5709910089505495E-9i
0.07017038286703829                               0.9989334435609253+6.063462702890619E-9i
0.07637357916378024                               0.9989334435652838+6.599465677705185E-9i
0.08312514989890632                               0.9989334435704422+7.182846784021649E-9i
0.09047357242349298                               0.9989334435765471+7.817793157328812E-9i
0.09847160957933775                               0.9989334435837461+8.508860840741155E-9i
0.10717668854455034                               0.9989334435923599+9.261008540084938E-9i
0.11665131316981968                               0.9989334436025151+1.0079632624795682E-8i
0.1269635127659974                                0.9989334436145823+1.097060537844352E-8i
0.13818733056536328                               0.9989334436288415+1.194031683225911E-8i
0.15040335536380253                               0.9989334436457411+1.2995720669649656E-8i
0.16369930016117026                               0.9989334436657271+1.4144382594266646E-8i
0.17817063195457308                               0.9989334436893803+1.5394535135745583E-8i
0.193921257206583                                 0.9989334437174014+1.6755134806552396E-8i
0.21106426791015548                               0.998933443750668+1.8235925232659762E-8i
0.22972275360711536                               0.9989334437900415+1.9847505748556094E-8i
0.25003068519063254                               0.9989334438367267+2.1601405988779592E-8i
0.2721338768375309                                0.9989334438919333+2.3510163453511067E-8i
0.2961910329772555                                0.9989334439574032+2.5587414087152268E-8i
0.32237488781490303                               0.998933444034916+2.7847981242108307E-8i
0.35087344559027134                               0.9989334441266952+3.03079795095388E-8i
0.3818913304781854                                0.9989334442354317+3.29849216756444E-8i
0.4156512558225992                                0.9989334443641906+3.5897833140216456E-8i
0.45239562325380556                               0.998933444516749+3.906737898723812E-8i
0.49238826317067413                               0.9989334446974453+4.251599475053394E-8i
0.5359163290848518                                0.9989334449113778+4.6268024736574645E-8i
0.5832923594286206                                0.9989334451647721+5.0349873835978367E-8i
0.634856521630522                                 0.9989334454648267+5.479016073816065E-8i
0.6909790545715645                                0.998933445820131+5.961987563640338E-8i
0.752062926959241                                 0.9989334462407977+6.487255618049218E-8i
0.8185467307069029                                0.9989334467387206+7.058443823128013E-8i
0.8909078300934142                                0.998933447328237+7.679464009520935E-8i
0.9696657893145525                                0.9989334480259576+8.354531174789464E-8i
1.0553861030365241                                0.9989334488516038+9.088178351174038E-8i
1.1486842567375548                                0.9989334498284668+9.8852697713362E-8i
1.250230145991456                                 0.998933450983996+1.0751010338152355E-7i
1.3607528864243346                                0.9989334523504771+1.1690950590335338E-7i
1.4810460488806754                                0.9989334539659803+1.2710985122613524E-7i
1.6119733573881587                                0.9989334558750321+1.3817343172502222E-7i
1.7544748908334598                                0.9989334581302329+1.5016566053827772E-7i
1.9095738328780987                                0.9989334607926857+1.6315470504187048E-7i
2.0783838185797574                                0.9989334639343037+1.7721090592614396E-7i
2.2621169304690265                                0.9989334676384816+1.924059562720015E-7i
2.462092401494628                                 0.9989334720024704+2.0881172852582077E-7i
2.679746087325692                                 0.9989334771386665+2.2649871876225125E-7i
2.9166407760237067                                0.9989334831769006+2.4553396774126875E-7i
3.1744774091091936                                0.9989334902659248+2.659783778634218E-7i
3.4551072945922217                                0.9989334985757012+2.878832988054971E-7i
3.760545399658172                                 0.9989335082984614+3.1128626215427707E-7i
4.092984818452442                                 0.9989335196501374+3.3620575838391227E-7i
4.454812518844989                                 0.9989335328705453+3.6263498042784775E-7i
4.848626481239083                                 0.9989335482226198+3.905345024589917E-7i
5.277254352483543                                 0.9989335659900421+4.1982396693962863E-7i
5.7437737488265865                                0.9989335864727985+4.503730210549038E-7i
6.251534353689718                                 0.998933609979843+4.819918483386878E-7i
6.804181968927101                                 0.9989336368188844+5.144221446030378E-7i
7.405684692262442                                 0.998933667282169+5.473292390913896E-7i
8.060361408861345                                 0.9989337016288112+5.802969511930414E-7i
8.772912801613366                                 0.9989337400630428+6.128266024490546E-7i
9.548455102782302                                 0.9989337827104136+6.443418647468869E-7i
10.39255682936713                                 0.9989338295925548+6.742011076246216E-7i
11.311278765939225                                0.9989338806037482+7.017183248334776E-7i
12.311217482038908                                0.9989339354918633+7.261927847911459E-7i
13.399552696593398                                0.9989339938478444+7.469463843761924E-7i
14.584098829439863                                0.9989340551064931+7.633659400888615E-7i
15.873361110102103                                0.9989341185608626+7.749463558654202E-7i
17.276596646690383                                0.9989341833906574+7.813294372667021E-7i
18.803880893409165                                0.9989342487032058+7.823331907193853E-7i
20.46617999391992                                 0.998934313582561+7.779672084939342E-7i
22.275429519995587                                0.9989343771412941+7.684318358971546E-7i
24.244620170823307                                0.9989344385691368+7.541011483323305E-7i
26.387891048289347                                0.9989344971725477+7.35492503957859E-7i
28.720631177978312                                0.9989345524019391+7.13226954784492E-7i
31.25959000482281                                 0.9989346038646959+6.879859232018346E-7i
34.02299765678071                                 0.998934651324321+6.604691926767378E-7i
37.03069584005145                                 0.9989346946892139+6.313582423445512E-7i
40.30428030568055                                 0.9989347339925948+6.012874384688095E-7i
43.867255910485035                                0.9989347693688904+5.708240375040575E-7i
47.745205385661315                                0.9989348010284577+5.404567242973724E-7i
51.96597302486202                                 0.9989348292337888+5.105914530059876E-7i
56.55986461065008                                 0.998934854278172+4.815530596895996E-7i
61.55986501483514                                 0.9989348764684083+4.535908277868035E-7i
67.0018750350959                                  0.9989348961111181+4.268865369560461E-7i
72.92496916841452                                 0.9989349135025279+4.015636996312147E-7i
79.37167617217558                                 0.9989349289218578+3.776970168344598E-7i
86.38828442740453                                 0.9989349426268732+3.553214590152189E-7i
94.02517429670142                                 0.9989349548519555+3.3444050214731384E-7i
102.33717986325213                                0.9989349658073177+3.1503338354248874E-7i
111.38398264826206                                0.9989349756794075+2.9706129152561953E-7i
121.23054013376529                                0.9989349846323411+2.804724830463999E-7i
131.94755216767086                                0.9989349928093232+2.652064862713896E-7i
143.61196859990804                                0.9989350003343467+2.5119744295965213E-7i
156.30754179458174                                0.9989350073144145+2.383767571600479E-7i
170.1254279852589                                 0.998935013841278+2.266751962478693E-7i
185.1648417912158                                 0.9989350199928031+2.1602454062899555E-7i
201.53376859417352                                0.9989350258354885+2.0635888037081426E-7i
219.34973989050602                                0.9989350314252671+1.9761565384327223E-7i
238.7406771860647                                 0.9989350368097368+1.897363986222513E-7i
259.84581049292524                                0.9989350420294203+1.8266727829971298E-7i
282.81667802300353                                0.9989350471193479+1.7635932027132071E-7i
307.81821425650804                                0.9989350521106375+1.7076837892880633E-7i
335.02993419772366                                0.9989350570317459+1.6585482282853138E-7i
364.64722232127525                                0.9989350619095094+1.6158294867885574E-7i
396.8827354637166                                 0.9989350667704212+1.5792016391383477E-7i
431.96792973341735                                0.9989350716407981+1.5483603083678658E-7i
470.1547224022139                                 0.9989350765472964+1.5230121804988548E-7i
511.717300711461                                  0.998935081516871+1.5028647413351166E-7i
556.9540905800136                                 0.9989350865762893+1.4876165613335042E-7i
606.1898993497584                                 0.998935091751356+1.476949737159486E-7i
659.7782479539546                                 0.9989350970660579+1.4705245664611054E-7i
718.1039092537357                                 0.9989351025414639+1.4679775730150731E-7i
781.585670768409                                  0.9989351081941905+1.4689238004479385E-7i
850.679341636417                                  0.9989351140353642+1.4729634386861942E-7i
925.8810253973965                                 0.9989351200693644+1.4796930934250106E-7i
1007.7306820944617                                0.9989351262932071+1.488721560852342E-7i
1096.8160052731403                                0.9989351326957598+1.4996887433261997E-7i
1193.7766417144383                                0.9989351392586613+1.5122865030834462E-7i
1299.3087842004172                                0.9989351459568631+1.5262785220504915E-7i
1414.1701702890239                                0.9989351527601253+1.5415182297601643E-7i
1539.1855229902085                                0.9989351596353976+1.5579607775333918E-7i
1675.2524724082173                                0.9989351665488071+1.575669631317259E-7i
1823.3480008684423                                0.9989351734685514+1.5948151553655425E-7i
1984.5354578058032                                0.9989351803667027+1.6156673662057173E-7i
2159.9721947827215                                0.9989351872215024+1.6385822770810794E-7i
2350.917875457289                                 0.9989351940184668+1.6639857674533278E-7i
2558.743520168589                                 0.998935200751448+1.6923550010460463E-7i
2784.94135008065                                  0.9989352074228972+1.7241998506091078E-7i
3031.135501567582                                 0.9989352140436615+1.7600460253126074E-7i
3299.0936877709423                                0.9989352206328729+1.8004203804144672E-7i
3590.739891061055                                 0.9989352272169734+1.8458384851708816E-7i
3908.168177536272                                 0.998935233829229+1.8967959267077586E-7i
4253.657732750392                                 0.9989352405087392+1.9537609340973446E-7i
4629.689226627268                                 0.9989352472997047+2.017170555528072E-7i
5038.962625065161                                 0.998935254250916+2.0874263519388616E-7i
5484.416576121026                                 0.9989352614151693+2.1648913132032983E-7i
5969.249509970739                                 0.9989352688486288+2.2498868691025597E-7i
6496.942604146125                                 0.9989352766105156+2.342686813989294E-7i
7071.284778943011                                 0.9989352847620933+2.443512497324238E-7i
7696.399902471167                                 0.9989352933658565+2.5525271984176067E-7i
8376.776400682924                                 0.9989353024841425+2.6698321364209304E-7i
9117.29948498494                                  0.9989353121777247+2.795465991819374E-7i
9923.286228832565                                 0.9989353225036902+2.9294083836046143E-7i
10800.52374516254                                 0.9989353335141917+3.0715894557697104E-7i
11755.310738783699                                0.9989353452545556+3.2219052600923224E-7i
12794.50273207876                                 0.9989353577626506+3.3802356562818104E-7i
13925.561288744648                                0.9989353710684132+3.546466929407648E-7i
15156.607589006044                                0.9989353851944246+3.7205108156443714E-7i
16496.48074098024                                 0.9989354001569998+3.902320411691743E-7i
17954.80124687834                                 0.9989354159672744+4.0918967433182866E-7i
19542.040079740553                                0.9989354326332244+4.2892872313111704E-7i
21269.59386668692                                 0.9989354501599369+4.494573647931509E-7i
23149.866718511657                                0.9989354685495118+4.7078549003163975E-7i
25196.359293170186                                0.9989354877990655+4.929228447738147E-7i
27423.765732649525                                0.9989355078976112+5.158779683770701E-7i
29848.079169243334                                0.9989355288212702+5.396584945934948E-7i
32486.706558783815                                0.9989355505278092+5.642735625935365E-7i
35358.59366535183                                 0.9989355729519237+5.897385569140855E-7i
38484.36109487433                                 0.9989355960008863+6.160822035476184E-7i
41886.4523543528                                  0.9989356195528996+6.433554049089666E-7i
45589.294999810685                                0.998935643457975+6.716410776947399E-7i
49619.47603002908                                 0.9989356675412268+7.01064017450096E-7i
54005.93278542374                                 0.998935691609862+7.317995636197025E-7i
58780.16072274924                                 0.9989357154615824+7.640804013832616E-7i
63976.439557484366                                0.9989357388947673+7.982007433238001E-7i
69632.0793976389                                  0.9989357617190286+8.345176000840058E-7i
75787.68863625945                                 0.9989357837652769+8.73449300208767E-7i
82487.46552614598                                 0.9989358048941579+9.15471514773967E-7i
89779.51553033332                                 0.9989358250025782+9.611115497529133E-7i
97716.19672696182                                 0.9989358440274325+1.0109416798897745E-6i
106354.49574860134                                0.9989358619467986+1.0655725234087832E-6i
115756.43695533059                                0.9989358787781858+1.1256473011203096E-6i
125989.52777950285                                0.9989358945754946+1.1918379085727104E-6i
137127.24343984036                                0.9989359094235573+1.264842992881895E-6i
149249.55450518322                                0.9989359234332116+1.345388751500811E-6i
162443.50109588687                                0.9989359367357847+1.434231981108066E-6i
176803.81784572086                                0.9989359494785052+1.5321654825154842E-6i
192433.6141115984                                 0.9989359618218763+1.6400252093251036E-6i
209445.1143151473                                 0.9989359739375088+1.7586988165721017E-6i
227960.4637318982                                 0.9989359860090223+1.8891350905390266E-6i
248112.60551377755                                0.998935998233703+2.0323539660302974E-6i
270046.23524206877                                0.9989360108266443+2.189456605124409E-6i
293918.83986468904                                0.9989360240255097+2.3616356825843617E-6i
319901.8284775067                                 0.9989360380976835+2.550185258484116E-6i
348181.76306889736                                0.998936053348004+2.756510930090862E-6i
378961.69806447235                                0.998936070128086+2.9821396641074386E-6i
412462.63829013566                                0.998936088847148+3.2287299837950282E-6i
448925.12582186074                                0.9989361099840768+3.498081949246735E-6i
488610.9671160336                                 0.9989361341018154+3.7921476880616202E-6i
531805.1128214208                                 0.9989361618638252+4.113041730941183E-6i
578817.703770128                                  0.9989361940532728+4.4630515102204295E-6i
629986.2978380707                                 0.9989362315953655+4.844647492976533E-6i
685678.2936641752                                 0.9989362755837794+5.260492654708996E-6i
746293.5686310144                                 0.9989363273106447+5.713450740332934E-6i
812267.350047972                                  0.9989363883021314+6.2065929764977775E-6i
884073.3401525081                                 0.998936460358924+6.743202102327014E-6i
962227.1173675155                                 0.9989365456028358+7.326773116993903E-6i
1047289.8382363617                                0.9989366465299926+7.961009674825167E-6i
1139872.2666160525                                0.9989367660714502+8.649814449135898E-6i
1240639.1590588344                                0.9989369076624177+9.397272184975622E-6i
1350314.0378698776                                0.998937075319454+1.0207622592922086E-5i
1469684.3861124474                                0.99893727372802+1.1085220765290686E-5i
1599607.301861491                                 0.99893750833904+1.2034480947420844E-5i
1741015.6523040226                                0.9989377854749386+1.3059799450826095E-5i
1894924.7718738236                                0.9989381124432697+1.4165451144202761E-5i
2062439.752514097                                 0.9989384976555988+1.5355453356121617E-5i
2244763.3784132237                                0.9989389507465942+1.6633389853624126E-5i
2443204.762186492                                 0.9989394826866259+1.800218768748507E-5i
2659188.744512702                                 0.9989401058773288+1.946383880952956E-5i
2894266.1247167517                                0.9989408342156457+2.1019060233800667E-5i
3150124.795755334                                 0.9989416831086909+2.266688699818607E-5i
3428601.8635565974                                0.9989426694132233+2.440419783665891E-5i
3731696.8377327556                                0.9989438112725304+2.6225177768571955E-5i
4061585.988376988                                 0.9989451278151764+2.8120732346677806E-5i
4420637.972028548                                 0.9989466386794291+3.0077880943083428E-5i
4811430.839003264                                 0.9989483633279863+3.2079172704430064E-5i
5236770.544204666                                 0.998950320125486+3.410218911772677E-5i
5699711.094326075                                 0.9989525251673326+3.611921740834476E-5i
6203576.476104281                                 0.9989549908778104+3.809719644880014E-5i
6751984.523072522                                 0.9989577244336132+3.999804731611558E-5i
7348872.892180388                                 0.9989607261223747+4.177949177600153E-5i
7998527.336796724                                 0.9989639877961728+4.339643417703369E-5i
8705612.479099892                                 0.9989674916304498+4.48029224535681E-5i
9475205.302806547                                 0.9989712094196552+4.595461873179131E-5i
1.0312831606721869E7                              0.9989751026273159+4.681160837884731E-5i
1.1224505680853104E7                              0.9989791233418769+4.734127528946749E-5i
1.2216773489967931E7                              0.998983216176093+4.752090285300017E-5i
1.3296759674662154E7                              0.9989873209985852+4.733964649882899E-5i
1.4472218707411403E7                              0.9989913762390636+4.6799581203682164E-5i
1.5751590570916245E7                              0.9989953223966958+4.591565439484676E-5i
1.7144061358519755E7                              0.9989991053358643+4.471454172904052E-5i
1.865962923181746E7                               0.9990026789953526+4.3232572865348856E-5i
2.030917620904739E7                               0.9990060072433358+4.151302567301137E-5i
2.2104546299710285E7                              0.9990090647627798+3.960314996652259E-5i
2.405863054644067E7                               0.9990118370036328+3.755127355838372E-5i
2.6185459584742382E7                              0.9990143193584475+3.540427189803351E-5i
2.850030438518117E7                               0.9990165157882775+3.3205581272245945E-5i
3.1019785901381E7                                 0.9990184371444615+3.099382718889394E-5i
3.376199441111347E7                               0.999020099405828+2.880204838366063E-5i
3.674661940736703E7                               0.9990215220035974+2.6657435446451174E-5i
3.99950909720367E7                                0.9990227263455179+2.4581469457897514E-5i
4.353073364731901E7                               0.9990237345990899+2.259034055906852E-5i
4.737893390963144E7                               0.9990245687478451+2.0695535730020964E-5i
5.156732244854974E7                               0.9990252499061688+1.890450553371459E-5i
5.612597255954989E7                               0.9990257978593629+1.7221342365416866E-5i
6.10876160750504E7                                0.9990262307894134+1.5647424734155515E-5i
6.648787838417277E7                               0.9990265651433301+1.4181999843727916E-5i
7.23655342286968E7                                0.999026815608889+1.2822691697122917E-5i
7.876278611187063E7                               0.9990269951629678+1.1565931012778366E-5i
8.572556731909342E7                               0.9990271151687053+1.04073100434078E-5i
9.330387172620398E7                               0.9990271855005859+9.341869271765786E-6i
1.0155211276345691E8                              0.9990272146832282+8.36432433556434E-6i
1.1052951411260243E8                              0.9990272100331472+7.469242159351417E-6i
1.2030053494233291E8                              0.9990271777975854+6.651175002667707E-6i
1.3093533273536122E8                              0.9990271232847912+5.904760162215424E-6i
1.425102670303002E8                               0.9990270509847039+5.224791989021166E-6i
1.5510844769528404E8                              0.9990269646773493+4.606272197952612E-6i
1.688203316700366E8                               0.9990268675299151+4.044443269702843E-6i
1.8374437246107325E8                              0.9990267621812191+3.5348092998846145E-6i
1.999877270535287E8                               0.9990266508167713+3.073147910501032E-6i
2.1766702531534636E8                              0.999026535232924+2.6555159469764764E-6i
2.3690920741826418E8                              0.9990264168942791+2.2782510915732046E-6i
2.5785243528842765E8                              0.9990262969855638+1.9379703778719267E-6i
2.806470846309845E8                               0.9990261764582823+1.6315658264734957E-6i
3.0545682465154445E8                              0.9990260560751022+1.356196752159636E-6i
3.3245979322709453E8                              0.9990259364503603+1.109278141948432E-6i
3.618498759642758E8                               0.9990258180870186+8.884646185353693E-7i
3.938380983288489E8                               0.9990257014088147+6.916300914693372E-7i
4.286541408420934E8                               0.9990255867865341+5.168439357758239E-7i
4.6654798822344875E8                              0.9990254745571598+3.623451044973739E-7i
5.0779172432054037E8                              0.9990253650359913+2.2651602179999677E-7i
5.526814857144614E8                               0.999025258522293+1.0785817943362707E-7i
6.015395880274857E8                               0.9990251552993602+4.971086957515752E-9i
6.547168402004743E8                               0.9990250556302447-8.346439059766989E-8i
7.125950633568425E8                               0.9990249597522329-1.5869783358200755E-7i
7.755898323389033E8                               0.9990248678700433-2.219164518115653E-7i
8.441534596012994E8                               0.9990247801504467-2.7424840960631615E-7i
9.187782428863358E8                               0.9990246967187462-3.167632945119145E-7i
1.000000000000004E9                               0.9990246176573351-3.504709445855344E-7i
