% Model:              random_surface_grain_N_var_MW_fixed_phi.mph
% Version:            COMSOL 5.5.0.359
% Date:               Mar 24 2022, 09:55
% Table:              N = 20, b = 1, w/ MW - sigma_eff ((dflux.u21-dflux.u22)*2*pi/(pi*L^2)/E0/(2*mu*c0))
% w                                               N 20 b 1.1
0.01                                              0.9989475064708598+7.92789193949752E-10i
0.01088401916069006                               0.9989475064709261+8.628732424842223E-10i
0.011846187309026836                              0.998947506471+9.391528467348787E-10i
0.01289341296525715                               0.9989475064710809+1.0221757026864106E-9i
0.014033215376054847                              0.9989475064711979+1.1125379228980531E-9i
0.01527377850390714                               0.9989475064713091+1.2108883209504412E-9i
0.016624009789266127                              0.9989475064714857+1.3179330434547613E-9i
0.018093604107387164                              0.9989475064716715+1.4344406983669402E-9i
0.01969311337907423                               0.9989475064718734+1.5612478011270136E-9i
0.021434022335148566                              0.9989475064721285+1.6992648520498432E-9i
0.023328830978641572                              0.9989475064724183+1.8494827937464215E-9i
0.02539114433680347                               0.9989475064728054+2.0129802041968744E-9i
0.027635770147361603                              0.9989475064732211+2.19093095602246E-9i
0.03007882518043099                               0.9989475064737042+2.3846127546694976E-9i
0.03273785095948577                               0.9989475064743328+2.595416189461522E-9i
0.03563193971228586                               0.9989475064750373+2.8248547701341E-9i
0.03878187145610724                               0.9989475064758707+3.0745758458902063E-9i
0.04221026320156901                               0.9989475064768645+3.346372301812829E-9i
0.04594173134636476                               0.9989475064780245+3.6421955440859146E-9i
0.05000306842491095                               0.998947506479416+3.964169372204522E-9i
0.054423435483002665                              0.9989475064810215+4.314605390787612E-9i
0.05923457145875806                               0.9989475064830214+4.696019425826665E-9i
0.06447102107323872                               0.9989475064853439+5.111149638819571E-9i
0.07017038286703829                               0.9989475064880824+5.562976118310139E-9i
0.07637357916378024                               0.9989475064913415+6.05474240089751E-9i
0.08312514989890632                               0.99894750649516+6.589978453269098E-9i
0.09047357242349298                               0.9989475064997257+7.172526091465801E-9i
0.09847160957933775                               0.9989475065051376+7.806566512758655E-9i
0.10717668854455034                               0.9989475065115084+8.496650217061968E-9i
0.11665131316981968                               0.9989475065191128+9.24772955355897E-9i
0.1269635127659974                                0.9989475065281284+1.0065193737859845E-8i
0.13818733056536328                               0.9989475065387592+1.0954908119982674E-8i
0.15040335536380253                               0.9989475065514617+1.1923255373879673E-8i
0.16369930016117026                               0.9989475065663609+1.297718091164177E-8i
0.17817063195457308                               0.9989475065840389+1.4124242847194703E-8i
0.193921257206583                                 0.9989475066049539+1.5372665104599937E-8i
0.21106426791015548                               0.9989475066297505+1.673139594495715E-8i
0.22972275360711536                               0.9989475066591841+1.8210171032806705E-8i
0.25003068519063254                               0.9989475066940642+1.981958235131376E-8i
0.2721338768375309                                0.9989475067353047+2.1571152258054332E-8i
0.2961910329772555                                0.9989475067841695+2.347741400170298E-8i
0.32237488781490303                               0.9989475068420647+2.5551999386725765E-8i
0.35087344559027134                               0.9989475069106131+2.780973259696865E-8i
0.3818913304781854                                0.9989475069919342+3.026673228796449E-8i
0.4156512558225992                                0.99894750708809+3.294052061748727E-8i
0.45239562325380556                               0.9989475072020625+3.5850142258496104E-8i
0.49238826317067413                               0.9989475073369939+3.901629193352992E-8i
0.5359163290848518                                0.9989475074969008+4.2461448803745285E-8i
0.5832923594286206                                0.998947507686211+4.621001474944865E-8i
0.634856521630522                                 0.9989475079104858+5.028848947826512E-8i
0.6909790545715645                                0.9989475081760387+5.4725609559979544E-8i
0.752062926959241                                 0.9989475084904967+5.9552531897730235E-8i
0.8185467307069029                                0.9989475088628265+6.48030102053269E-8i
0.8909078300934142                                0.9989475093036897+7.051358012595445E-8i
0.9696657893145525                                0.9989475098256747+7.672374603046358E-8i
1.0553861030365241                                0.9989475104435035+8.347617056405837E-8i
1.1486842567375548                                0.9989475111748253+9.081685778972406E-8i
1.250230145991456                                 0.9989475120401942+9.879532802145021E-8i
1.3607528864243346                                0.9989475130641626+1.0746477023211547E-7i
1.4810460488806754                                0.9989475142754458+1.1688217282696534E-7i
1.6119733573881587                                0.9989475157079932+1.2710840059991066E-7i
1.7544748908334598                                0.9989475174016131+1.382082179327755E-7i
1.9095738328780987                                0.9989475194032383+1.5025022366329033E-7i
2.0783838185797574                                0.998947521768033+1.6330666852446865E-7i
2.2621169304690265                                0.9989475245603315+1.7745312184421827E-7i
2.462092401494628                                 0.9989475278556502+1.9276794025576664E-7i
2.679746087325692                                 0.9989475317420626+2.0933146347002774E-7i
2.9166407760237067                                0.9989475363220118+2.272249001831096E-7i
3.1744774091091936                                0.9989475417143655+2.4652877777023123E-7i
3.4551072945922217                                0.9989475480565696+2.673208788453429E-7i
3.760545399658172                                 0.99894755550651+2.8967354299554806E-7i
4.092984818452442                                 0.9989475642450398+3.136502076046196E-7i
4.454812518844989                                 0.9989475744776629+3.3930102714173444E-7i
4.848626481239083                                 0.9989475864361659+3.6665750219706377E-7i
5.277254352483543                                 0.9989476003790753+3.9572587700435733E-7i
5.7437737488265865                                0.9989476165920457+4.2647951260799207E-7i
6.251534353689718                                 0.9989476353853806+4.58849842784747E-7i
6.804181968927101                                 0.9989476570906212+4.927165722458124E-7i
7.405684692262442                                 0.998947682053717+5.278970384317005E-7i
8.060361408861345                                 0.9989477106249124+5.64135677424103E-7i
8.772912801613366                                 0.9989477431449088+6.010943496799366E-7i
9.548455102782302                                 0.9989477799266763+6.383449144282136E-7i
10.39255682936713                                 0.9989478212328488+6.753657027598046E-7i
11.311278765939225                                0.9989478672497181+7.115437236744707E-7i
12.311217482038908                                0.9989479180591689+7.461844936561164E-7i
13.399552696593398                                0.9989479736107698+7.785311357550594E-7i
14.584098829439863                                0.9989480336973979+8.077933952252451E-7i
15.873361110102103                                0.9989480979386414+8.331861501441668E-7i
17.276596646690383                                0.9989481657749611+8.539751266115206E-7i
18.803880893409165                                0.998948236476789+8.695259923088481E-7i
20.46617999391992                                 0.9989483091694601+8.793513250755043E-7i
22.275429519995587                                0.9989483828733847+8.831494622827627E-7i
24.244620170823307                                0.9989484565559842+8.808297482159798E-7i
26.387891048289347                                0.9989485291894703+8.725202919293969E-7i
28.720631177978312                                0.9989485998090253+8.585570272981547E-7i
31.25959000482281                                 0.9989486675623921+8.394558699752252E-7i
34.02299765678071                                 0.9989487317479715+8.158720088421985E-7i
37.03069584005145                                 0.9989487918368477+7.885521453977623E-7i
40.30428030568055                                 0.9989488474791878+7.582856639856451E-7i
43.867255910485035                                0.9989488984965692+7.258598980692252E-7i
47.745205385661315                                0.9989489448634549+6.920231386424646E-7i
51.96597302486202                                 0.9989489866821049+6.574573014954621E-7i
56.55986461065008                                 0.9989490241544259+6.227605437437081E-7i
61.55986501483514                                 0.9989490575541916+5.884388119475995E-7i
67.0018750350959                                  0.9989490872015833+5.549047177867609E-7i
72.92496916841452                                 0.9989491134411643+5.22481868910952E-7i
79.37167617217558                                 0.9989491366248775+4.914127134595729E-7i
86.38828442740453                                 0.9989491570983747+4.6186838545803514E-7i
94.02517429670142                                 0.9989491751919759+4.3395924392554317E-7i
102.33717986325213                                0.9989491912143328+4.0774525713756327E-7i
111.38398264826206                                0.9989492054489896+3.832456528807365E-7i
121.23054013376529                                0.998949218152839+3.6044748426787534E-7i
131.94755216767086                                0.9989492295560012+3.393130198089095E-7i
143.61196859990804                                0.9989492398625588+3.197859048247145E-7i
156.30754179458174                                0.998949249252091+3.01796258374836E-7i
170.1254279852589                                 0.9989492578809309+2.852647721151421E-7i
185.1648417912158                                 0.9989492658846335+2.7010605414603653E-7i
201.53376859417352                                0.9989492733788403+2.56231346063795E-7i
219.34973989050602                                0.9989492804616416+2.435508149811859E-7i
238.7406771860647                                 0.9989492872148116+2.3197550135567705E-7i
259.84581049292524                                0.9989492937054636+2.214190523734842E-7i
282.81667802300353                                0.9989492999880353+2.11799204318471E-7i
307.81821425650804                                0.9989493061056357+2.030390405947495E-7i
335.02993419772366                                0.998949312092274+1.950679389469932E-7i
364.64722232127525                                0.9989493179749033+1.878221324298595E-7i
396.8827354637166                                 0.9989493237750595+1.812448564380851E-7i
431.96792973341735                                0.9989493295111885+1.7528605826923853E-7i
470.1547224022139                                 0.998949335199952+1.6990166023553442E-7i
511.717300711461                                  0.9989493408578256+1.650525312066271E-7i
556.9540905800136                                 0.9989493465019309+1.607031818690162E-7i
606.1898993497584                                 0.9989493521505013+1.568203520604842E-7i
659.7782479539546                                 0.9989493578228341+1.5337159096647854E-7i
718.1039092537357                                 0.9989493635393588+1.5032392294572742E-7i
781.585670768409                                  0.9989493693202154+1.4764273172990687E-7i
850.679341636417                                  0.9989493751846316+1.4529091359299011E-7i
925.8810253973965                                 0.9989493811493414+1.432284767520402E-7i
1007.7306820944617                                0.9989493872271183+1.414125632377766E-7i
1096.8160052731403                                0.9989493934252048+1.3979806302705374E-7i
1193.7766417144383                                0.9989493997439628+1.3833873070326925E-7i
1299.3087842004172                                0.9989494061757405+1.3698884624270094E-7i
1414.1701702890239                                0.9989494127047608+1.3570517820692273E-7i
1539.1855229902085                                0.9989494193069475+1.3444920919307746E-7i
1675.2524724082173                                0.9989494259509827+1.3318920001978065E-7i
1823.3480008684423                                0.9989494325999527+1.3190200596688255E-7i
1984.5354578058032                                0.9989494392132842+1.305742494397426E-7i
2159.9721947827215                                0.9989494457491662+1.2920288699098813E-7i
2350.917875457289                                 0.9989494521668079+1.277950325753405E-7i
2558.743520168589                                 0.9989494584285354+1.2636711683033092E-7i
2784.94135008065                                  0.9989494645015113+1.2494355576152128E-7i
3031.135501567582                                 0.9989494703587981+1.235551408491599E-7i
3299.0936877709423                                0.9989494759800749+1.2223739687476533E-7i
3590.739891061055                                 0.9989494813513466+1.2102884655633062E-7i
3908.168177536272                                 0.9989494864653065+1.1996963783160156E-7i
4253.657732750392                                 0.9989494913198241+1.1910033616241502E-7i
4629.689226627268                                 0.9989494959181667+1.1846099142039959E-7i
5038.962625065161                                 0.9989495002672211+1.1809052891855347E-7i
5484.416576121026                                 0.9989495043769698+1.18026414958895E-7i
5969.249509970739                                 0.9989495082593075+1.1830454083317395E-7i
6496.942604146125                                 0.9989495119272586+1.189594512891948E-7i
7071.284778943011                                 0.9989495153940127+1.2002463410279016E-7i
7696.399902471167                                 0.9989495186721518+1.2153313852741685E-7i
8376.776400682924                                 0.9989495217734304+1.235182453525952E-7i
9117.29948498494                                  0.9989495247079528+1.2601424296310847E-7i
9923.286228832565                                 0.9989495274841079+1.290572732799173E-7i
10800.52374516254                                 0.9989495301086329+1.3268617985778427E-7i
11755.310738783699                                0.9989495325864938+1.3694328958529098E-7i
12794.50273207876                                 0.9989495349210825+1.4187527059039667E-7i
13925.561288744648                                0.9989495371144886+1.4753379323531255E-7i
15156.607589006044                                0.9989495391679539+1.5397622669491536E-7i
16496.48074098024                                 0.9989495410819275+1.6126621313997427E-7i
17954.80124687834                                 0.9989495428566961+1.6947417098552864E-7i
19542.040079740553                                0.998949544492429+1.7867784294490984E-7i
21269.59386668692                                 0.9989495459896491+1.889627058644132E-7i
23149.866718511657                                0.9989495473494143+2.0042245838915143E-7i
25196.359293170186                                0.9989495485734114+2.131595293104311E-7i
27423.765732649525                                0.9989495496640859+2.2728557410057738E-7i
29848.079169243334                                0.9989495506247779+2.429221351092732E-7i
32486.706558783815                                0.9989495514595227+2.6020130744941227E-7i
35358.59366535183                                 0.9989495521734264+2.7926659480654135E-7i
38484.36109487433                                 0.9989495527720825+3.002738459403371E-7i
41886.4523543528                                  0.9989495532621622+3.2339230290939847E-7i
45589.294999810685                                0.9989495536510757+3.4880582150655164E-7i
49619.47603002908                                 0.9989495539469517+3.767142181145843E-7i
54005.93278542374                                 0.9989495541590303+4.073347349078938E-7i
58780.16072274924                                 0.9989495542976052+4.409036630974098E-7i
63976.439557484366                                0.9989495543743466+4.776781043784987E-7i
69632.0793976389                                  0.9989495544024014+5.179378575184511E-7i
75787.68863625945                                 0.9989495543969173+5.619874829862882E-7i
82487.46552614598                                 0.9989495543753505+6.101585430097549E-7i
89779.51553033332                                 0.9989495543579208+6.628119568659133E-7i
97716.19672696182                                 0.9989495543683684+7.203406359992107E-7i
106354.49574860134                                0.9989495544344645+7.831722525502071E-7i
115756.43695533059                                0.9989495545888384+8.517723033222902E-7i
125989.52777950285                                0.9989495548698883+9.266473578227129E-7i
137127.24343984036                                0.998949555322996+1.0083486849566828E-6i
149249.55450518322                                0.9989495560017057+1.0974760067195016E-6i
162443.50109588687                                0.9989495569693203+1.1946818162360163E-6i
176803.81784572086                                0.9989495583005856+1.3006757266438703E-6i
192433.6141115984                                 0.99894956008395+1.416229495149229E-6i
209445.1143151473                                 0.998949562423991+1.542182176059553E-6i
227960.4637318982                                 0.9989495654443309+1.6794458661136084E-6i
248112.60551377755                                0.9989495692912398+1.829011752315676E-6i
270046.23524206877                                0.9989495741375227+1.991956668337039E-6i
293918.83986468904                                0.9989495801876738+2.1694500999625023E-6i
319901.8284775067                                 0.9989495876832252+2.362761678656888E-6i
348181.76306889736                                0.998949596909861+2.5732690941707126E-6i
378961.69806447235                                0.9989496082048914+2.8024665094893337E-6i
412462.63829013566                                0.9989496219671663+3.0519733988807872E-6i
448925.12582186074                                0.9989496386675096+3.3235437476632933E-6i
488610.9671160336                                 0.9989496588621626+3.619075586205892E-6i
531805.1128214208                                 0.9989496832074677+3.940620684926082E-6i
578817.703770128                                  0.9989497124781801+4.290394328977423E-6i
629986.2978380707                                 0.9989497475881952+4.670784850462349E-6i
685678.2936641752                                 0.99894978961481+5.084362735708764E-6i
746293.5686310144                                 0.9989498398277425+5.5338887976960065E-6i
812267.350047972                                  0.9989498997220251+6.022320901367727E-6i
884073.3401525081                                 0.9989499710569519+6.552818631745304E-6i
962227.1173675155                                 0.9989500559007324+7.128744807256768E-6i
1047289.8382363617                                0.9989501566825272+7.753662840741899E-6i
1139872.2666160525                                0.9989502762512488+8.431328328688069E-6i
1240639.1590588344                                0.9989504179438338+9.165673024707733E-6i
1350314.0378698776                                0.9989505856613736+9.960778812884493E-6i
1469684.3861124474                                0.9989507839553522+1.0820838702449785E-5i
1599607.301861491                                 0.9989510181224961+1.1750101237217368E-5i
1741015.6523040226                                0.9989512943088541+1.2752794014782134E-5i
1894924.7718738236                                0.9989516196203111+1.383302110972216E-5i
2062439.752514097                                 0.9989520022378356+1.4994628396497847E-5i
2244763.3784132237                                0.9989524515322822+1.6241030160399483E-5i
2443204.762186492                                 0.9989529781718716+1.757498973827978E-5i
2659188.744512702                                 0.9989535942124512+1.899834692693425E-5i
2894266.1247167517                                0.998954313156881+2.051168567333083E-5i
3150124.795755334                                 0.9989551499650331+2.2113937294540413E-5i
3428601.8635565974                                0.9989561209902691+2.380191846734121E-5i
3731696.8377327556                                0.9989572438157229+2.5569808933674713E-5i
4061585.988376988                                 0.9989585369544873+2.740858323161968E-5i
4420637.972028548                                 0.9989600193804072+2.930542335893107E-5i
4811430.839003264                                 0.9989617098538566+3.1243155647413895E-5i
5236770.544204666                                 0.9989636260166013+3.31997741433875E-5i
5699711.094326075                                 0.9989657832451947+3.514813347241297E-5i
6203576.476104281                                 0.9989681932810826+3.705591050264896E-5i
6751984.523072522                                 0.9989708626942196+3.8885943899916064E-5i
7348872.892180388                                 0.9989737912872696+4.059705244865427E-5i
7998527.336796724                                 0.998976970599919+4.214540395292535E-5i
8705612.479099892                                 0.9989803827184461+4.348644818274343E-5i
9475205.302806547                                 0.9989839996181848+4.457734299992007E-5i
1.0312831606721869E7                              0.9989877832495994+4.5379702567972346E-5i
1.1224505680853104E7                              0.9989916865148061+4.586239806707973E-5i
1.2216773489967931E7                              0.998995655165183+4.600407597573204E-5i
1.3296759674662154E7                              0.9989996305065735+4.5795045768128495E-5i
1.4472218707411403E7                              0.9990035526528133+4.52382505256878E-5i
1.5751590570916245E7                              0.9990073639581357+4.434915888102857E-5i
1.7144061358519755E7                              0.999011012221508+4.3154583825056435E-5i
1.865962923181746E7                               0.9990144532955535+4.1690600672180766E-5i
2.030917620904739E7                               0.9990176528439713+3.99998629785377E-5i
2.2104546299710285E7                              0.9990205871424951+3.8128675969291485E-5i
2.405863054644067E7                               0.9990232429669361+3.612417210716081E-5i
2.6185459584742382E7                              0.9990256167297114+3.4031861831510725E-5i
2.850030438518117E7                               0.9990277130935261+3.18937306802061E-5i
3.1019785901381E7                                 0.9990295433033284+2.9746944777138467E-5i
3.376199441111347E7                               0.9990311234527612+2.762314044114883E-5i
3.674661940736703E7                               0.9990324728498002+2.5548212183128716E-5i
3.99950909720367E7                                0.9990336125881055+2.3542485013449548E-5i
4.353073364731901E7                               0.9990345643774025+2.1621151045040416E-5i
4.737893390963144E7                               0.9990353496440678+1.9794862871303323E-5i
5.156732244854974E7                               0.9990359888851552+1.8070396405678412E-5i
5.612597255954989E7                               0.9990365012400322+1.64513184026139E-5i
6.10876160750504E7                                0.999036904241352+1.4938616052667758E-5i
6.648787838417277E7                               0.9990372137028862+1.3531263298177194E-5i
7.23655342286968E7                                0.999037443708252+1.2226711862148451E-5i
7.876278611187063E7                               0.9990376066686811+1.1021304914881533E-5i
8.572556731909342E7                               0.9990377134257522+9.910616781444696E-6i
9.330387172620398E7                               0.9990377733793343+8.889725878514112E-6i
1.0155211276345691E8                              0.9990377946271071+7.953429453626384E-6i
1.1052951411260243E8                              0.999037784105671+7.09640905603594E-6i
1.2030053494233291E8                              0.999037747727457+6.313355463212293E-6i
1.3093533273536122E8                              0.9990376905085194+5.5990604385687845E-6i
1.425102670303002E8                               0.9990376166855518+4.948482245666008E-6i
1.5510844769528404E8                              0.9990375298211286+4.356790569147128E-6i
1.688203316700366E8                               0.9990374328966235+3.819395695492744E-6i
1.8374437246107325E8                              0.9990373283931457+3.3319660365630894E-6i
1.999877270535287E8                               0.9990372183625542+2.8904376694626355E-6i
2.1766702531534636E8                              0.9990371044883151+2.491018272306672E-6i
2.3690920741826418E8                              0.9990369881397704+2.1301876376519497E-6i
2.5785243528842765E8                              0.9990368704205226+1.8046955215012241E-6i
2.806470846309845E8                               0.9990367522126399+1.5115571226312297E-6i
3.0545682465154445E8                              0.9990366342177401+1.2480457496575542E-6i
3.3245979322709453E8                              0.9990365169955342+1.011682092501158E-6i
3.618498759642758E8                               0.9990364009987088+8.002195801092305E-7i
3.938380983288489E8                               0.9990362866037562+6.116258442606074E-7i
4.286541408420934E8                               0.9990361741364737+4.4406083596893775E-7i
4.6654798822344875E8                              0.9990360638919134+2.9585276417439875E-7i
5.0779172432054037E8                              0.9990359561469522+1.6547338582235272E-7i
5.526814857144614E8                               0.9990358511678193+5.1514363174160635E-8i
6.015395880274857E8                               0.9990357492113114-4.733384744825136E-8i
6.547168402004743E8                               0.9990356505225126-1.3229942516857466E-7i
7.125950633568425E8                               0.9990355553299366-2.0454238023644873E-7i
7.755898323389033E8                               0.9990354638393288-2.6516351038211853E-7i
8.441534596012994E8                               0.9990353762281033-3.1520958048806217E-7i
9.187782428863358E8                               0.9990352926409207-3.556755404428371E-7i
1.000000000000004E9                               0.9990352131870142-3.875047537766944E-7i
