% Model:              random_surface_grain_N_var_MW_fixed_phi.mph
% Version:            COMSOL 5.5.0.359
% Date:               Mar 24 2022, 12:26
% Table:              Table 2 - surface area
% surface area
3.6995599232385925E-10
