% Model:              random_surface_grain_N_var_MW.mph
% Version:            COMSOL 5.5.0.306
% Date:               Aug 17 2021, 12:32
% Table:              Table 2 - surface area
% surface area
3.358961540238596E-10
