% Model:              random_surface_grain_N_var_MW_fixed_phi.mph
% Version:            COMSOL 5.5.0.359
% Date:               Mar 24 2022, 11:58
% Table:              Table 3 - particle volume
% volume                 volume
5.588355034772186E-16    8.382600001967534E-13
