% Model:              random_surface_grain_N_var_MW_fixed_phi.mph
% Version:            COMSOL 5.5.0.359
% Date:               Mar 24 2022, 09:56
% Table:              Table 3 - particle volume
% volume                 volume
5.574175887079733E-16    8.379299999999985E-13
