% Model:              5_1_e-6_MW_fixed_phi.mph
% Version:            COMSOL 5.5.0.359
% Date:               Mar 24 2022, 13:02
% Table:              Table 2 - surface area
% surface area
5.228598981738128E-10
