% Model:              b_1e-6_MW.mph
% Version:            COMSOL 5.5.0.359
% Date:               Aug 18 2021, 18:36
% Table:              Table 2 - surface area
% surface area
1.2566370518338636E-11
