% Model:              c_0.8e-6_MW.mph
% Version:            COMSOL 5.5.0.359
% Date:               Jun 25 2021, 11:07
% Table:              Table 2 - surface area
% surface area
8.042477043177851E-12
