% Model:              a_2e-5_MW.mph
% Version:            COMSOL 5.5.0.306
% Date:               Aug 17 2021, 10:23
% Table:              Table 9 - Surface Integration 3
% particle volume        domain volume
3.3510321638288234E-14   5.026548245743618E-11
