% Model:              c_0.8e-6_MW.mph
% Version:            COMSOL 5.5.0.306
% Date:               Aug 17 2021, 10:01
% Table:              Table 3 - particle volume
% particle volume        domain volume
2.1446605190283965E-18   3.2169908772759443E-15
