% Model:              b_4e-6_MW.mph
% Version:            COMSOL 5.5.0.306
% Date:               Aug 17 2021, 09:59
% Table:              Table 3 - particle volume
% particle volume        domain volume
2.680825730931585E-16    4.021238596594951E-13
